LAMMPS data file. CGCMM style. atom_style full generated by VMD/TopoTools v1.5 on Tue Dec 04 20:17:48 CET 2018
 3105 atoms
 1998 bonds
 999 angles
 0 dihedrals
 0 impropers
 4 atom types
 1 bond types
 1 angle types
 0 dihedral types
 0 improper types
 -15.962988 15.960989  xlo xhi
 -15.962988 15.960989  ylo yhi
 -15.943489 15.980488  zlo zhi

# Pair Coeffs
#
# 1  CL
# 2  H
# 3  K
# 4  O

# Bond Coeffs
#
# 1  

# Angle Coeffs
#
# 1  H-O-H

 Masses

 1 35.452999 # CL
 2 1.007940 # H
 3 39.098301 # K
 4 15.999400 # O

 Atoms

1 1 4 -0.847600 -12.126000 -14.509000 -9.590000 # O WAT
2 1 2 0.423800 -11.696000 -15.000000 -10.349000 # H WAT
3 1 2 0.423800 -11.811000 -14.894000 -8.722000 # H WAT
4 2 4 -0.847600 14.695000 -11.311000 13.698000 # O WAT
5 2 2 0.423800 14.135000 -11.400000 14.522000 # H WAT
6 2 2 0.423800 15.000000 -10.363000 13.602000 # H WAT
7 3 4 -0.847600 -9.867000 4.385000 -11.059000 # O WAT
8 3 2 0.423800 -10.859000 4.253000 -11.049000 # H WAT
9 3 2 0.423800 -9.443000 3.688000 -11.638000 # H WAT
10 4 4 -0.847600 -4.923000 11.867000 11.330000 # O WAT
11 4 2 0.423800 -5.378000 12.463000 10.668000 # H WAT
12 4 2 0.423800 -4.182000 12.369000 11.778000 # H WAT
13 5 4 -0.847600 7.543000 -7.951000 -0.710000 # O WAT
14 5 2 0.423800 7.100000 -7.106000 -1.010000 # H WAT
15 5 2 0.423800 8.382000 -7.731000 -0.212000 # H WAT
16 6 4 -0.847600 6.200000 6.793000 -1.187000 # O WAT
17 6 2 0.423800 5.612000 7.284000 -1.829000 # H WAT
18 6 2 0.423800 6.824000 6.197000 -1.693000 # H WAT
19 7 4 -0.847600 -11.477000 -1.062000 -14.303000 # O WAT
20 7 2 0.423800 -11.824000 -1.678000 -15.010000 # H WAT
21 7 2 0.423800 -12.128000 -0.316000 -14.161000 # H WAT
22 8 4 -0.847600 -5.641000 0.244000 -12.097000 # O WAT
23 8 2 0.423800 -5.684000 1.211000 -11.843000 # H WAT
24 8 2 0.423800 -4.980000 -0.227000 -11.512000 # H WAT
25 9 4 -0.847600 3.488000 13.271000 -6.487000 # O WAT
26 9 2 0.423800 4.440000 13.315000 -6.790000 # H WAT
27 9 2 0.423800 2.900000 13.052000 -7.266000 # H WAT
28 10 4 -0.847600 -13.021000 14.598000 7.412000 # O WAT
29 10 2 0.423800 -12.204000 15.000000 6.998000 # H WAT
30 10 2 0.423800 -13.677000 14.361000 6.696000 # H WAT
31 11 4 -0.847600 -9.300000 1.937000 7.502000 # O WAT
32 11 2 0.423800 -9.365000 2.419000 8.376000 # H WAT
33 11 2 0.423800 -9.550000 0.977000 7.630000 # H WAT
34 12 4 -0.847600 8.895000 -4.650000 -2.857000 # O WAT
35 12 2 0.423800 9.479000 -4.882000 -3.635000 # H WAT
36 12 2 0.423800 7.992000 -4.373000 -3.188000 # H WAT
37 13 4 -0.847600 7.760000 -10.483000 3.598000 # O WAT
38 13 2 0.423800 8.377000 -10.820000 2.887000 # H WAT
39 13 2 0.423800 6.857000 -10.897000 3.482000 # H WAT
40 14 4 -0.847600 -5.689000 12.249000 -8.859000 # O WAT
41 14 2 0.423800 -5.608000 12.502000 -7.895000 # H WAT
42 14 2 0.423800 -6.656000 12.198000 -9.111000 # H WAT
43 15 4 -0.847600 14.475000 -2.344000 -14.084000 # O WAT
44 15 2 0.423800 14.138000 -1.600000 -14.661000 # H WAT
45 15 2 0.423800 14.282000 -2.136000 -13.125000 # H WAT
46 16 4 -0.847600 -10.837000 -2.473000 4.884000 # O WAT
47 16 2 0.423800 -10.128000 -2.534000 5.586000 # H WAT
48 16 2 0.423800 -10.806000 -3.287000 4.305000 # H WAT
49 17 4 -0.847600 -7.844000 -6.479000 -0.298000 # O WAT
50 17 2 0.423800 -7.047000 -7.055000 -0.116000 # H WAT
51 17 2 0.423800 -8.655000 -7.055000 -0.407000 # H WAT
52 18 4 -0.847600 1.678000 11.894000 13.979000 # O WAT
53 18 2 0.423800 1.718000 12.525000 13.204000 # H WAT
54 18 2 0.423800 0.742000 11.854000 14.329000 # H WAT
55 19 4 -0.847600 -14.963000 -3.432000 9.407000 # O WAT
56 19 2 0.423800 -15.001000 -2.670000 8.760000 # H WAT
57 19 2 0.423800 -14.582000 -4.237000 8.953000 # H WAT
58 20 4 -0.847600 -2.648000 15.000000 1.336000 # O WAT
59 20 2 0.423800 -3.396000 14.878000 0.683000 # H WAT
60 20 2 0.423800 -2.944000 14.698000 2.243000 # H WAT
61 21 4 -0.847600 4.503000 9.125000 6.293000 # O WAT
62 21 2 0.423800 5.404000 8.769000 6.542000 # H WAT
63 21 2 0.423800 4.203000 9.787000 6.979000 # H WAT
64 22 4 -0.847600 -5.699000 -0.788000 -9.391000 # O WAT
65 22 2 0.423800 -6.007000 0.148000 -9.559000 # H WAT
66 22 2 0.423800 -6.128000 -1.405000 -10.052000 # H WAT
67 23 4 -0.847600 -0.180000 2.630000 6.407000 # O WAT
68 23 2 0.423800 -0.374000 3.383000 5.777000 # H WAT
69 23 2 0.423800 0.152000 1.840000 5.891000 # H WAT
70 24 4 -0.847600 -11.851000 -4.253000 0.232000 # O WAT
71 24 2 0.423800 -11.116000 -3.794000 0.732000 # H WAT
72 24 2 0.423800 -12.703000 -3.742000 0.347000 # H WAT
73 25 4 -0.847600 14.389000 10.866000 -0.372000 # O WAT
74 25 2 0.423800 15.000000 11.554000 -0.765000 # H WAT
75 25 2 0.423800 14.929000 10.177000 0.111000 # H WAT
76 26 4 -0.847600 3.057000 5.913000 -7.389000 # O WAT
77 26 2 0.423800 3.786000 5.435000 -7.879000 # H WAT
78 26 2 0.423800 2.170000 5.654000 -7.771000 # H WAT
79 27 4 -0.847600 7.355000 4.586000 8.695000 # O WAT
80 27 2 0.423800 8.240000 4.479000 8.241000 # H WAT
81 27 2 0.423800 6.663000 4.843000 8.021000 # H WAT
82 28 4 -0.847600 9.336000 -3.413000 -0.989000 # O WAT
83 28 2 0.423800 10.107000 -4.040000 -1.099000 # H WAT
84 28 2 0.423800 8.501000 -3.937000 -0.816000 # H WAT
85 29 4 -0.847600 -7.225000 -11.999000 6.709000 # O WAT
86 29 2 0.423800 -6.599000 -11.224000 6.798000 # H WAT
87 29 2 0.423800 -8.090000 -11.784000 7.164000 # H WAT
88 30 4 -0.847600 -7.889000 -13.362000 5.116000 # O WAT
89 30 2 0.423800 -8.158000 -14.008000 5.830000 # H WAT
90 30 2 0.423800 -6.894000 -13.370000 5.015000 # H WAT
91 31 4 -0.847600 2.707000 -0.026000 4.964000 # O WAT
92 31 2 0.423800 1.875000 -0.191000 5.494000 # H WAT
93 31 2 0.423800 2.524000 0.663000 4.262000 # H WAT
94 32 4 -0.847600 1.861000 -5.269000 -6.538000 # O WAT
95 32 2 0.423800 2.368000 -6.117000 -6.383000 # H WAT
96 32 2 0.423800 2.320000 -4.514000 -6.069000 # H WAT
97 33 4 -0.847600 9.009000 -0.841000 -14.634000 # O WAT
98 33 2 0.423800 8.393000 -0.151000 -15.013000 # H WAT
99 33 2 0.423800 8.709000 -1.751000 -14.920000 # H WAT
100 34 4 -0.847600 2.450000 -14.166000 -8.652000 # O WAT
101 34 2 0.423800 3.204000 -13.513000 -8.575000 # H WAT
102 34 2 0.423800 2.653000 -14.827000 -9.375000 # H WAT
103 35 4 -0.847600 -4.333000 -6.912000 8.556000 # O WAT
104 35 2 0.423800 -4.792000 -7.800000 8.591000 # H WAT
105 35 2 0.423800 -3.857000 -6.747000 9.421000 # H WAT
106 36 4 -0.847600 9.729000 6.761000 14.099000 # O WAT
107 36 2 0.423800 10.559000 6.545000 13.586000 # H WAT
108 36 2 0.423800 9.963000 7.323000 14.893000 # H WAT
109 37 4 -0.847600 -7.840000 -11.981000 -2.376000 # O WAT
110 37 2 0.423800 -8.769000 -11.611000 -2.393000 # H WAT
111 37 2 0.423800 -7.672000 -12.423000 -1.494000 # H WAT
112 38 4 -0.847600 4.800000 14.286000 3.517000 # O WAT
113 38 2 0.423800 5.021000 13.405000 3.936000 # H WAT
114 38 2 0.423800 4.807000 15.000000 4.218000 # H WAT
115 39 4 -0.847600 10.700000 7.742000 11.088000 # O WAT
116 39 2 0.423800 10.853000 8.546000 11.663000 # H WAT
117 39 2 0.423800 11.329000 7.762000 10.311000 # H WAT
118 40 4 -0.847600 13.939000 -4.740000 -11.959000 # O WAT
119 40 2 0.423800 13.946000 -4.685000 -12.958000 # H WAT
120 40 2 0.423800 14.700000 -4.208000 -11.589000 # H WAT
121 41 4 -0.847600 -1.829000 8.873000 -3.544000 # O WAT
122 41 2 0.423800 -2.627000 8.666000 -4.111000 # H WAT
123 41 2 0.423800 -1.031000 9.017000 -4.130000 # H WAT
124 42 4 -0.847600 -15.004000 -15.006000 -6.332000 # O WAT
125 42 2 0.423800 -14.253000 -14.731000 -5.732000 # H WAT
126 42 2 0.423800 -14.946000 -14.501000 -7.194000 # H WAT
127 43 4 -0.847600 10.567000 9.816000 -2.058000 # O WAT
128 43 2 0.423800 9.850000 9.468000 -1.453000 # H WAT
129 43 2 0.423800 11.462000 9.527000 -1.717000 # H WAT
130 44 4 -0.847600 5.172000 9.957000 2.788000 # O WAT
131 44 2 0.423800 5.741000 10.005000 3.610000 # H WAT
132 44 2 0.423800 5.334000 10.766000 2.222000 # H WAT
133 45 4 -0.847600 5.775000 -11.074000 -13.087000 # O WAT
134 45 2 0.423800 5.482000 -10.444000 -13.807000 # H WAT
135 45 2 0.423800 4.998000 -11.292000 -12.497000 # H WAT
136 46 4 -0.847600 6.546000 -2.010000 -5.162000 # O WAT
137 46 2 0.423800 7.099000 -2.499000 -5.837000 # H WAT
138 46 2 0.423800 6.361000 -1.083000 -5.489000 # H WAT
139 47 4 -0.847600 4.116000 -10.648000 3.557000 # O WAT
140 47 2 0.423800 4.556000 -9.753000 3.636000 # H WAT
141 47 2 0.423800 4.642000 -11.225000 2.932000 # H WAT
142 48 4 -0.847600 3.358000 -12.489000 1.267000 # O WAT
143 48 2 0.423800 2.874000 -11.706000 0.877000 # H WAT
144 48 2 0.423800 2.882000 -12.801000 2.089000 # H WAT
145 49 4 -0.847600 8.230000 12.202000 -0.839000 # O WAT
146 49 2 0.423800 8.750000 11.679000 -0.163000 # H WAT
147 49 2 0.423800 7.629000 12.850000 -0.370000 # H WAT
148 50 4 -0.847600 -6.577000 -5.591000 13.862000 # O WAT
149 50 2 0.423800 -6.938000 -5.795000 12.952000 # H WAT
150 50 2 0.423800 -5.647000 -5.232000 13.781000 # H WAT
151 51 4 -0.847600 -14.098000 -10.129000 -13.999000 # O WAT
152 51 2 0.423800 -14.147000 -9.297000 -14.552000 # H WAT
153 51 2 0.423800 -14.907000 -10.189000 -13.414000 # H WAT
154 52 4 -0.847600 -2.724000 -5.119000 -1.267000 # O WAT
155 52 2 0.423800 -1.801000 -5.003000 -1.636000 # H WAT
156 52 2 0.423800 -3.389000 -5.087000 -2.014000 # H WAT
157 53 4 -0.847600 6.597000 -0.139000 -10.450000 # O WAT
158 53 2 0.423800 6.652000 0.778000 -10.846000 # H WAT
159 53 2 0.423800 6.742000 -0.822000 -11.165000 # H WAT
160 54 4 -0.847600 -8.936000 4.405000 11.155000 # O WAT
161 54 2 0.423800 -8.205000 4.041000 11.733000 # H WAT
162 54 2 0.423800 -9.667000 4.769000 11.731000 # H WAT
163 55 4 -0.847600 -3.831000 0.417000 9.082000 # O WAT
164 55 2 0.423800 -4.819000 0.299000 8.983000 # H WAT
165 55 2 0.423800 -3.510000 1.108000 8.435000 # H WAT
166 56 4 -0.847600 1.870000 -2.300000 -0.308000 # O WAT
167 56 2 0.423800 1.814000 -3.189000 -0.763000 # H WAT
168 56 2 0.423800 0.958000 -1.892000 -0.259000 # H WAT
169 57 4 -0.847600 -4.182000 -3.571000 9.795000 # O WAT
170 57 2 0.423800 -3.478000 -3.196000 10.399000 # H WAT
171 57 2 0.423800 -4.968000 -2.953000 9.772000 # H WAT
172 58 4 -0.847600 -14.041000 8.296000 -12.061000 # O WAT
173 58 2 0.423800 -14.093000 7.440000 -11.546000 # H WAT
174 58 2 0.423800 -14.268000 9.063000 -11.460000 # H WAT
175 59 4 -0.847600 12.604000 11.426000 6.072000 # O WAT
176 59 2 0.423800 13.037000 12.119000 6.648000 # H WAT
177 59 2 0.423800 12.178000 10.730000 6.650000 # H WAT
178 60 4 -0.847600 -0.152000 -3.779000 0.042000 # O WAT
179 60 2 0.423800 -0.715000 -3.098000 0.509000 # H WAT
180 60 2 0.423800 -0.561000 -4.685000 0.153000 # H WAT
181 61 4 -0.847600 2.578000 -10.530000 14.422000 # O WAT
182 61 2 0.423800 2.181000 -10.996000 13.631000 # H WAT
183 61 2 0.423800 1.865000 -10.016000 14.899000 # H WAT
184 62 4 -0.847600 -11.712000 9.087000 -7.001000 # O WAT
185 62 2 0.423800 -12.434000 8.796000 -7.629000 # H WAT
186 62 2 0.423800 -10.825000 9.028000 -7.459000 # H WAT
187 63 4 -0.847600 -5.464000 -5.372000 10.460000 # O WAT
188 63 2 0.423800 -5.596000 -5.261000 9.474000 # H WAT
189 63 2 0.423800 -5.597000 -6.331000 10.709000 # H WAT
190 64 4 -0.847600 8.186000 7.568000 11.630000 # O WAT
191 64 2 0.423800 8.246000 8.525000 11.915000 # H WAT
192 64 2 0.423800 7.989000 6.994000 12.425000 # H WAT
193 65 4 -0.847600 -1.434000 10.713000 -6.803000 # O WAT
194 65 2 0.423800 -1.531000 10.332000 -5.883000 # H WAT
195 65 2 0.423800 -0.626000 11.300000 -6.839000 # H WAT
196 66 4 -0.847600 8.194000 3.652000 -5.918000 # O WAT
197 66 2 0.423800 8.600000 4.559000 -6.028000 # H WAT
198 66 2 0.423800 8.428000 3.288000 -5.016000 # H WAT
199 67 4 -0.847600 -0.266000 -5.252000 -11.959000 # O WAT
200 67 2 0.423800 0.635000 -5.584000 -12.237000 # H WAT
201 67 2 0.423800 -0.163000 -4.419000 -11.414000 # H WAT
202 68 4 -0.847600 -7.053000 8.774000 -14.063000 # O WAT
203 68 2 0.423800 -7.836000 9.051000 -14.621000 # H WAT
204 68 2 0.423800 -6.318000 8.446000 -14.657000 # H WAT
205 69 4 -0.847600 8.445000 -7.260000 -2.745000 # O WAT
206 69 2 0.423800 7.695000 -6.710000 -3.113000 # H WAT
207 69 2 0.423800 8.974000 -6.713000 -2.096000 # H WAT
208 70 4 -0.847600 5.367000 2.741000 -2.165000 # O WAT
209 70 2 0.423800 4.841000 2.534000 -1.339000 # H WAT
210 70 2 0.423800 6.301000 2.995000 -1.912000 # H WAT
211 71 4 -0.847600 15.000000 4.499000 7.102000 # O WAT
212 71 2 0.423800 15.000000 5.468000 6.854000 # H WAT
213 71 2 0.423800 14.363000 4.003000 6.511000 # H WAT
214 72 4 -0.847600 2.456000 14.956000 6.591000 # O WAT
215 72 2 0.423800 3.265000 14.614000 7.069000 # H WAT
216 72 2 0.423800 2.640000 14.999000 5.609000 # H WAT
217 73 4 -0.847600 -0.786000 4.479000 10.405000 # O WAT
218 73 2 0.423800 -1.403000 5.266000 10.404000 # H WAT
219 73 2 0.423800 -0.751000 4.083000 11.323000 # H WAT
220 74 4 -0.847600 -13.297000 14.116000 -3.010000 # O WAT
221 74 2 0.423800 -12.615000 14.022000 -2.285000 # H WAT
222 74 2 0.423800 -13.758000 15.000000 -2.924000 # H WAT
223 75 4 -0.847600 -7.389000 0.495000 0.187000 # O WAT
224 75 2 0.423800 -8.196000 0.316000 0.750000 # H WAT
225 75 2 0.423800 -6.567000 0.207000 0.680000 # H WAT
226 76 4 -0.847600 3.678000 10.750000 4.276000 # O WAT
227 76 2 0.423800 3.429000 9.783000 4.217000 # H WAT
228 76 2 0.423800 3.681000 11.037000 5.234000 # H WAT
229 77 4 -0.847600 -10.019000 2.052000 -10.081000 # O WAT
230 77 2 0.423800 -11.001000 2.166000 -9.932000 # H WAT
231 77 2 0.423800 -9.644000 1.437000 -9.387000 # H WAT
232 78 4 -0.847600 1.994000 12.230000 4.480000 # O WAT
233 78 2 0.423800 1.834000 13.211000 4.375000 # H WAT
234 78 2 0.423800 1.678000 11.934000 5.382000 # H WAT
235 79 4 -0.847600 -4.850000 14.541000 -8.225000 # O WAT
236 79 2 0.423800 -5.506000 15.000000 -7.625000 # H WAT
237 79 2 0.423800 -5.187000 14.559000 -9.166000 # H WAT
238 80 4 -0.847600 -12.378000 8.290000 12.504000 # O WAT
239 80 2 0.423800 -11.830000 8.971000 12.992000 # H WAT
240 80 2 0.423800 -12.960000 7.802000 13.155000 # H WAT
241 81 4 -0.847600 13.891000 -7.471000 0.935000 # O WAT
242 81 2 0.423800 13.235000 -6.740000 1.121000 # H WAT
243 81 2 0.423800 13.706000 -8.249000 1.536000 # H WAT
244 82 4 -0.847600 3.657000 4.449000 13.594000 # O WAT
245 82 2 0.423800 3.133000 5.058000 12.998000 # H WAT
246 82 2 0.423800 4.315000 3.930000 13.048000 # H WAT
247 83 4 -0.847600 -14.226000 -4.260000 -5.387000 # O WAT
248 83 2 0.423800 -13.387000 -4.010000 -5.871000 # H WAT
249 83 2 0.423800 -14.937000 -4.496000 -6.050000 # H WAT
250 84 4 -0.847600 14.657000 2.597000 13.897000 # O WAT
251 84 2 0.423800 14.383000 2.584000 14.859000 # H WAT
252 84 2 0.423800 15.020000 3.500000 13.665000 # H WAT
253 85 4 -0.847600 7.516000 -11.922000 -11.331000 # O WAT
254 85 2 0.423800 6.910000 -11.334000 -10.795000 # H WAT
255 85 2 0.423800 7.100000 -12.826000 -11.434000 # H WAT
256 86 4 -0.847600 9.402000 -5.347000 7.404000 # O WAT
257 86 2 0.423800 8.970000 -4.474000 7.632000 # H WAT
258 86 2 0.423800 8.825000 -5.848000 6.759000 # H WAT
259 87 4 -0.847600 -15.006000 -1.300000 -14.039000 # O WAT
260 87 2 0.423800 -14.878000 -2.236000 -14.367000 # H WAT
261 87 2 0.423800 -14.696000 -0.655000 -14.737000 # H WAT
262 88 4 -0.847600 -4.199000 -1.851000 -12.773000 # O WAT
263 88 2 0.423800 -3.455000 -1.694000 -12.123000 # H WAT
264 88 2 0.423800 -4.913000 -2.400000 -12.337000 # H WAT
265 89 4 -0.847600 -12.103000 -14.923000 -6.542000 # O WAT
266 89 2 0.423800 -12.080000 -15.000000 -5.545000 # H WAT
267 89 2 0.423800 -12.436000 -14.016000 -6.800000 # H WAT
268 90 4 -0.847600 9.191000 -7.839000 -5.291000 # O WAT
269 90 2 0.423800 9.628000 -7.267000 -4.597000 # H WAT
270 90 2 0.423800 8.217000 -7.616000 -5.344000 # H WAT
271 91 4 -0.847600 -5.050000 -8.449000 10.981000 # O WAT
272 91 2 0.423800 -4.265000 -8.087000 11.484000 # H WAT
273 91 2 0.423800 -5.803000 -8.622000 11.616000 # H WAT
274 92 4 -0.847600 2.962000 -8.911000 -4.639000 # O WAT
275 92 2 0.423800 2.132000 -8.652000 -5.134000 # H WAT
276 92 2 0.423800 3.247000 -9.827000 -4.922000 # H WAT
277 93 4 -0.847600 -8.765000 -6.545000 9.876000 # O WAT
278 93 2 0.423800 -8.100000 -6.183000 10.530000 # H WAT
279 93 2 0.423800 -9.621000 -6.755000 10.350000 # H WAT
280 94 4 -0.847600 8.357000 6.308000 1.274000 # O WAT
281 94 2 0.423800 8.249000 6.009000 2.222000 # H WAT
282 94 2 0.423800 7.973000 5.619000 0.660000 # H WAT
283 95 4 -0.847600 -10.971000 11.489000 -11.228000 # O WAT
284 95 2 0.423800 -10.583000 10.588000 -11.034000 # H WAT
285 95 2 0.423800 -10.514000 12.178000 -10.667000 # H WAT
286 96 4 -0.847600 4.768000 12.140000 -11.719000 # O WAT
287 96 2 0.423800 4.899000 11.470000 -12.449000 # H WAT
288 96 2 0.423800 4.266000 12.929000 -12.075000 # H WAT
289 97 4 -0.847600 -1.476000 -10.509000 5.087000 # O WAT
290 97 2 0.423800 -1.144000 -10.372000 4.153000 # H WAT
291 97 2 0.423800 -1.687000 -9.623000 5.500000 # H WAT
292 98 4 -0.847600 -1.531000 13.053000 -3.951000 # O WAT
293 98 2 0.423800 -2.180000 13.436000 -4.609000 # H WAT
294 98 2 0.423800 -1.427000 13.681000 -3.180000 # H WAT
295 99 4 -0.847600 -4.926000 -7.880000 -13.981000 # O WAT
296 99 2 0.423800 -4.514000 -7.003000 -14.227000 # H WAT
297 99 2 0.423800 -5.594000 -7.743000 -13.249000 # H WAT
298 100 4 -0.847600 14.082000 -0.288000 14.475000 # O WAT
299 100 2 0.423800 14.522000 0.402000 13.900000 # H WAT
300 100 2 0.423800 13.172000 -0.493000 14.114000 # H WAT
301 101 4 -0.847600 7.270000 0.939000 3.429000 # O WAT
302 101 2 0.423800 7.018000 1.324000 2.541000 # H WAT
303 101 2 0.423800 6.448000 0.620000 3.901000 # H WAT
304 102 4 -0.847600 3.673000 -4.977000 -2.941000 # O WAT
305 102 2 0.423800 3.277000 -4.563000 -3.761000 # H WAT
306 102 2 0.423800 4.558000 -5.385000 -3.166000 # H WAT
307 103 4 -0.847600 -9.973000 -4.614000 -8.960000 # O WAT
308 103 2 0.423800 -9.322000 -4.513000 -8.207000 # H WAT
309 103 2 0.423800 -10.436000 -5.498000 -8.885000 # H WAT
310 104 4 -0.847600 -14.222000 9.922000 6.834000 # O WAT
311 104 2 0.423800 -14.937000 9.275000 6.567000 # H WAT
312 104 2 0.423800 -14.068000 10.575000 6.092000 # H WAT
313 105 4 -0.847600 -12.024000 12.474000 3.104000 # O WAT
314 105 2 0.423800 -11.143000 12.723000 3.506000 # H WAT
315 105 2 0.423800 -12.698000 12.339000 3.831000 # H WAT
316 106 4 -0.847600 -4.855000 0.848000 -14.731000 # O WAT
317 106 2 0.423800 -4.498000 0.185000 -14.074000 # H WAT
318 106 2 0.423800 -4.979000 1.732000 -14.279000 # H WAT
319 107 4 -0.847600 -2.739000 -1.779000 2.210000 # O WAT
320 107 2 0.423800 -1.740000 -1.819000 2.225000 # H WAT
321 107 2 0.423800 -3.038000 -0.828000 2.290000 # H WAT
322 108 4 -0.847600 1.363000 -12.184000 -7.639000 # O WAT
323 108 2 0.423800 0.722000 -12.799000 -8.099000 # H WAT
324 108 2 0.423800 1.873000 -11.660000 -8.322000 # H WAT
325 109 4 -0.847600 14.686000 7.953000 -7.206000 # O WAT
326 109 2 0.423800 14.846000 8.814000 -6.723000 # H WAT
327 109 2 0.423800 14.089000 8.116000 -7.992000 # H WAT
328 110 4 -0.847600 -6.772000 -14.469000 -2.451000 # O WAT
329 110 2 0.423800 -6.432000 -13.742000 -3.048000 # H WAT
330 110 2 0.423800 -6.346000 -14.388000 -1.550000 # H WAT
331 111 4 -0.847600 -4.478000 -9.870000 -1.637000 # O WAT
332 111 2 0.423800 -4.169000 -10.093000 -2.562000 # H WAT
333 111 2 0.423800 -3.744000 -10.060000 -0.984000 # H WAT
334 112 4 -0.847600 -6.987000 -9.304000 0.896000 # O WAT
335 112 2 0.423800 -7.906000 -8.939000 0.748000 # H WAT
336 112 2 0.423800 -6.693000 -9.102000 1.830000 # H WAT
337 113 4 -0.847600 7.883000 2.091000 -3.164000 # O WAT
338 113 2 0.423800 7.199000 1.390000 -3.366000 # H WAT
339 113 2 0.423800 8.687000 1.664000 -2.751000 # H WAT
340 114 4 -0.847600 -0.157000 1.500000 -3.035000 # O WAT
341 114 2 0.423800 0.365000 2.132000 -2.462000 # H WAT
342 114 2 0.423800 -0.956000 1.971000 -3.411000 # H WAT
343 115 4 -0.847600 -6.465000 10.680000 0.764000 # O WAT
344 115 2 0.423800 -7.266000 11.064000 0.305000 # H WAT
345 115 2 0.423800 -5.925000 10.152000 0.108000 # H WAT
346 116 4 -0.847600 2.411000 1.956000 -1.594000 # O WAT
347 116 2 0.423800 1.895000 1.993000 -0.738000 # H WAT
348 116 2 0.423800 2.724000 2.874000 -1.836000 # H WAT
349 117 4 -0.847600 9.721000 -2.924000 9.076000 # O WAT
350 117 2 0.423800 8.839000 -3.132000 9.499000 # H WAT
351 117 2 0.423800 10.446000 -3.423000 9.551000 # H WAT
352 118 4 -0.847600 -1.139000 9.715000 9.351000 # O WAT
353 118 2 0.423800 -0.546000 10.376000 9.811000 # H WAT
354 118 2 0.423800 -1.119000 9.877000 8.365000 # H WAT
355 119 4 -0.847600 -8.293000 -6.505000 -3.544000 # O WAT
356 119 2 0.423800 -8.048000 -7.313000 -3.008000 # H WAT
357 119 2 0.423800 -8.100000 -5.680000 -3.013000 # H WAT
358 120 4 -0.847600 -5.188000 -8.147000 4.253000 # O WAT
359 120 2 0.423800 -4.262000 -8.518000 4.184000 # H WAT
360 120 2 0.423800 -5.549000 -7.975000 3.336000 # H WAT
361 121 4 -0.847600 0.408000 -10.597000 0.057000 # O WAT
362 121 2 0.423800 0.906000 -10.611000 0.924000 # H WAT
363 121 2 0.423800 -0.279000 -9.871000 0.078000 # H WAT
364 122 4 -0.847600 -5.821000 -4.290000 -13.533000 # O WAT
365 122 2 0.423800 -5.461000 -4.657000 -14.392000 # H WAT
366 122 2 0.423800 -5.649000 -4.941000 -12.794000 # H WAT
367 123 4 -0.847600 -3.072000 -0.734000 -4.952000 # O WAT
368 123 2 0.423800 -2.550000 0.015000 -5.361000 # H WAT
369 123 2 0.423800 -4.018000 -0.699000 -5.275000 # H WAT
370 124 4 -0.847600 8.812000 -8.601000 2.308000 # O WAT
371 124 2 0.423800 8.751000 -9.166000 1.485000 # H WAT
372 124 2 0.423800 8.174000 -7.833000 2.235000 # H WAT
373 125 4 -0.847600 11.798000 -6.176000 -10.370000 # O WAT
374 125 2 0.423800 12.196000 -6.980000 -10.812000 # H WAT
375 125 2 0.423800 12.190000 -5.347000 -10.770000 # H WAT
376 126 4 -0.847600 14.042000 2.314000 4.758000 # O WAT
377 126 2 0.423800 14.899000 2.266000 5.272000 # H WAT
378 126 2 0.423800 13.280000 2.449000 5.392000 # H WAT
379 127 4 -0.847600 1.595000 11.019000 -10.264000 # O WAT
380 127 2 0.423800 0.731000 11.112000 -10.760000 # H WAT
381 127 2 0.423800 2.340000 10.875000 -10.915000 # H WAT
382 128 4 -0.847600 10.505000 -3.550000 11.982000 # O WAT
383 128 2 0.423800 11.194000 -2.830000 11.907000 # H WAT
384 128 2 0.423800 10.822000 -4.368000 11.501000 # H WAT
385 129 4 -0.847600 14.033000 5.599000 0.813000 # O WAT
386 129 2 0.423800 15.000000 5.826000 0.703000 # H WAT
387 129 2 0.423800 13.849000 5.374000 1.770000 # H WAT
388 130 4 -0.847600 1.524000 11.399000 -4.989000 # O WAT
389 130 2 0.423800 1.009000 12.037000 -5.563000 # H WAT
390 130 2 0.423800 2.282000 11.014000 -5.515000 # H WAT
391 131 4 -0.847600 7.275000 -3.250000 11.068000 # O WAT
392 131 2 0.423800 7.696000 -2.594000 11.696000 # H WAT
393 131 2 0.423800 6.637000 -2.772000 10.464000 # H WAT
394 132 4 -0.847600 -9.781000 5.787000 -2.350000 # O WAT
395 132 2 0.423800 -10.196000 6.022000 -1.470000 # H WAT
396 132 2 0.423800 -8.916000 5.309000 -2.195000 # H WAT
397 133 4 -0.847600 -8.500000 10.821000 -6.587000 # O WAT
398 133 2 0.423800 -9.445000 10.697000 -6.892000 # H WAT
399 133 2 0.423800 -7.907000 10.949000 -7.381000 # H WAT
400 134 4 -0.847600 8.453000 14.200000 4.779000 # O WAT
401 134 2 0.423800 8.566000 14.187000 5.772000 # H WAT
402 134 2 0.423800 7.531000 14.512000 4.551000 # H WAT
403 135 4 -0.847600 12.542000 7.314000 -5.583000 # O WAT
404 135 2 0.423800 11.864000 7.093000 -4.881000 # H WAT
405 135 2 0.423800 13.243000 6.600000 -5.608000 # H WAT
406 136 4 -0.847600 -7.259000 -3.505000 1.687000 # O WAT
407 136 2 0.423800 -7.268000 -3.883000 2.613000 # H WAT
408 136 2 0.423800 -8.009000 -2.851000 1.586000 # H WAT
409 137 4 -0.847600 13.585000 7.917000 -0.496000 # O WAT
410 137 2 0.423800 13.109000 8.590000 0.071000 # H WAT
411 137 2 0.423800 14.302000 8.373000 -1.025000 # H WAT
412 138 4 -0.847600 -15.003000 -7.974000 -7.300000 # O WAT
413 138 2 0.423800 -15.023000 -8.721000 -7.965000 # H WAT
414 138 2 0.423800 -14.286000 -7.323000 -7.548000 # H WAT
415 139 4 -0.847600 11.326000 1.532000 -13.195000 # O WAT
416 139 2 0.423800 12.132000 1.050000 -12.851000 # H WAT
417 139 2 0.423800 10.507000 1.183000 -12.738000 # H WAT
418 140 4 -0.847600 -7.541000 -10.405000 4.977000 # O WAT
419 140 2 0.423800 -7.720000 -11.261000 4.491000 # H WAT
420 140 2 0.423800 -8.407000 -9.950000 5.183000 # H WAT
421 141 4 -0.847600 -0.094000 11.123000 0.599000 # O WAT
422 141 2 0.423800 -0.872000 10.527000 0.797000 # H WAT
423 141 2 0.423800 0.072000 11.727000 1.379000 # H WAT
424 142 4 -0.847600 1.861000 -14.675000 12.029000 # O WAT
425 142 2 0.423800 1.321000 -15.000000 12.806000 # H WAT
426 142 2 0.423800 1.450000 -15.000000 11.177000 # H WAT
427 143 4 -0.847600 6.039000 -4.921000 6.721000 # O WAT
428 143 2 0.423800 5.386000 -4.443000 7.309000 # H WAT
429 143 2 0.423800 6.742000 -5.355000 7.286000 # H WAT
430 144 4 -0.847600 -0.673000 1.050000 8.553000 # O WAT
431 144 2 0.423800 -1.172000 0.437000 9.167000 # H WAT
432 144 2 0.423800 -1.297000 1.411000 7.861000 # H WAT
433 145 4 -0.847600 -9.025000 -12.099000 -14.548000 # O WAT
434 145 2 0.423800 -9.986000 -11.997000 -14.805000 # H WAT
435 145 2 0.423800 -8.642000 -12.905000 -15.000000 # H WAT
436 146 4 -0.847600 -4.119000 5.125000 14.518000 # O WAT
437 146 2 0.423800 -4.220000 5.919000 13.919000 # H WAT
438 146 2 0.423800 -3.675000 4.382000 14.016000 # H WAT
439 147 4 -0.847600 11.181000 8.970000 2.000000 # O WAT
440 147 2 0.423800 11.074000 9.738000 2.631000 # H WAT
441 147 2 0.423800 11.267000 8.119000 2.519000 # H WAT
442 148 4 -0.847600 -0.077000 -8.327000 -3.240000 # O WAT
443 148 2 0.423800 -0.599000 -7.996000 -4.026000 # H WAT
444 148 2 0.423800 -0.001000 -7.600000 -2.558000 # H WAT
445 149 4 -0.847600 14.268000 -10.360000 -0.606000 # O WAT
446 149 2 0.423800 14.537000 -9.455000 -0.276000 # H WAT
447 149 2 0.423800 14.663000 -10.516000 -1.511000 # H WAT
448 150 4 -0.847600 3.762000 10.491000 -3.287000 # O WAT
449 150 2 0.423800 4.347000 9.846000 -3.780000 # H WAT
450 150 2 0.423800 2.803000 10.300000 -3.496000 # H WAT
451 151 4 -0.847600 -11.676000 9.626000 8.493000 # O WAT
452 151 2 0.423800 -12.127000 8.966000 7.891000 # H WAT
453 151 2 0.423800 -11.839000 10.553000 8.154000 # H WAT
454 152 4 -0.847600 -8.756000 -14.377000 -3.611000 # O WAT
455 152 2 0.423800 -9.607000 -14.853000 -3.390000 # H WAT
456 152 2 0.423800 -8.139000 -15.000000 -4.091000 # H WAT
457 153 4 -0.847600 5.436000 -11.588000 10.065000 # O WAT
458 153 2 0.423800 6.071000 -10.915000 10.444000 # H WAT
459 153 2 0.423800 4.979000 -12.074000 10.810000 # H WAT
460 154 4 -0.847600 9.353000 10.122000 -14.323000 # O WAT
461 154 2 0.423800 8.864000 9.390000 -14.799000 # H WAT
462 154 2 0.423800 9.755000 10.747000 -14.994000 # H WAT
463 155 4 -0.847600 -9.882000 1.190000 2.129000 # O WAT
464 155 2 0.423800 -10.469000 1.735000 1.531000 # H WAT
465 155 2 0.423800 -9.896000 1.575000 3.052000 # H WAT
466 156 4 -0.847600 -7.704000 14.760000 -7.764000 # O WAT
467 156 2 0.423800 -8.668000 14.795000 -7.496000 # H WAT
468 156 2 0.423800 -7.365000 13.824000 -7.671000 # H WAT
469 157 4 -0.847600 1.260000 -13.652000 -1.098000 # O WAT
470 157 2 0.423800 0.958000 -13.908000 -2.016000 # H WAT
471 157 2 0.423800 2.043000 -13.034000 -1.164000 # H WAT
472 158 4 -0.847600 -2.295000 9.576000 5.067000 # O WAT
473 158 2 0.423800 -1.714000 9.204000 5.791000 # H WAT
474 158 2 0.423800 -3.181000 9.838000 5.450000 # H WAT
475 159 4 -0.847600 -13.427000 -10.851000 -3.855000 # O WAT
476 159 2 0.423800 -13.014000 -10.086000 -4.349000 # H WAT
477 159 2 0.423800 -14.187000 -10.518000 -3.297000 # H WAT
478 160 4 -0.847600 -11.725000 11.195000 -9.099000 # O WAT
479 160 2 0.423800 -12.359000 11.509000 -8.392000 # H WAT
480 160 2 0.423800 -10.883000 10.864000 -8.671000 # H WAT
481 161 4 -0.847600 -12.265000 2.604000 -3.216000 # O WAT
482 161 2 0.423800 -13.084000 2.778000 -2.670000 # H WAT
483 161 2 0.423800 -11.450000 2.784000 -2.665000 # H WAT
484 162 4 -0.847600 14.182000 -9.559000 10.961000 # O WAT
485 162 2 0.423800 15.000000 -9.612000 11.534000 # H WAT
486 162 2 0.423800 13.801000 -8.635000 11.008000 # H WAT
487 163 4 -0.847600 14.716000 13.246000 7.516000 # O WAT
488 163 2 0.423800 14.162000 13.524000 8.301000 # H WAT
489 163 2 0.423800 15.000000 12.293000 7.628000 # H WAT
490 164 4 -0.847600 3.168000 -15.000000 -5.545000 # O WAT
491 164 2 0.423800 4.104000 -14.948000 -5.199000 # H WAT
492 164 2 0.423800 3.179000 -14.970000 -6.545000 # H WAT
493 165 4 -0.847600 10.530000 14.861000 14.202000 # O WAT
494 165 2 0.423800 10.293000 14.031000 14.707000 # H WAT
495 165 2 0.423800 11.417000 14.739000 13.756000 # H WAT
496 166 4 -0.847600 -12.972000 -5.805000 -8.476000 # O WAT
497 166 2 0.423800 -13.692000 -5.245000 -8.065000 # H WAT
498 166 2 0.423800 -12.406000 -6.203000 -7.754000 # H WAT
499 167 4 -0.847600 -3.583000 8.535000 3.609000 # O WAT
500 167 2 0.423800 -3.039000 8.186000 2.846000 # H WAT
501 167 2 0.423800 -4.511000 8.736000 3.294000 # H WAT
502 168 4 -0.847600 -0.623000 -7.376000 2.058000 # O WAT
503 168 2 0.423800 -0.475000 -8.320000 1.762000 # H WAT
504 168 2 0.423800 -0.673000 -6.779000 1.258000 # H WAT
505 169 4 -0.847600 -0.490000 14.980000 4.840000 # O WAT
506 169 2 0.423800 -0.702000 14.588000 3.944000 # H WAT
507 169 2 0.423800 0.501000 15.000000 4.970000 # H WAT
508 170 4 -0.847600 8.028000 -9.810000 -1.783000 # O WAT
509 170 2 0.423800 8.891000 -10.116000 -1.382000 # H WAT
510 170 2 0.423800 7.342000 -10.533000 -1.691000 # H WAT
511 171 4 -0.847600 1.257000 -3.578000 10.863000 # O WAT
512 171 2 0.423800 0.354000 -3.180000 11.028000 # H WAT
513 171 2 0.423800 1.846000 -3.409000 11.653000 # H WAT
514 172 4 -0.847600 6.193000 -15.000000 5.904000 # O WAT
515 172 2 0.423800 7.051000 -14.952000 6.417000 # H WAT
516 172 2 0.423800 5.421000 -14.950000 6.538000 # H WAT
517 173 4 -0.847600 -14.032000 -4.533000 4.604000 # O WAT
518 173 2 0.423800 -14.826000 -5.076000 4.330000 # H WAT
519 173 2 0.423800 -13.221000 -4.857000 4.115000 # H WAT
520 174 4 -0.847600 0.229000 6.086000 -6.438000 # O WAT
521 174 2 0.423800 0.519000 5.322000 -5.862000 # H WAT
522 174 2 0.423800 -0.062000 6.849000 -5.861000 # H WAT
523 175 4 -0.847600 -10.000000 3.299000 -8.269000 # O WAT
524 175 2 0.423800 -10.066000 4.190000 -8.719000 # H WAT
525 175 2 0.423800 -9.041000 3.095000 -8.071000 # H WAT
526 176 4 -0.847600 7.384000 -3.362000 -14.220000 # O WAT